[{"CAS":"10102-44-0","Tc":431.2,"Tc_units":"K","acentric":0.851088,"aliases":["NO2"],"molemass":0.0460055,"molemass_units":"kg/mol","name":"NITROGEN-DIOXIDE","pc":10100000.0,"pc_units":"Pa"},{"CAS":"10544-73-7","Tc":425.0,"Tc_units":"K","acentric":0.431227,"aliases":["N2O3"],"molemass":0.0760117,"molemass_units":"kg/mol","name":"NITROGEN-TRIOXIDE","pc":6990000.0,"pc_units":"Pa"},{"CAS":"10544-72-6","Tc":431.4,"Tc_units":"K","acentric":0.842985,"aliases":["N2O4"],"molemass":0.0920111,"molemass_units":"kg/mol","name":"NITROGEN-TETROXIDE","pc":9980000.0,"pc_units":"Pa"},{"CAS":"7446-11-9","Tc":490.9,"Tc_units":"K","acentric":0.42396,"aliases":["O3S"],"molemass":0.0800642,"molemass_units":"kg/mol","name":"SULFUR-TRIOXIDE","pc":8210000.0,"pc_units":"Pa"},{"CAS":"10102-43-9","Tc":180.2,"Tc_units":"K","acentric":0.582944,"aliases":["NO"],"molemass":0.0300061,"molemass_units":"kg/mol","name":"NITRIC-OXIDE","pc":6480000.0,"pc_units":"Pa"},{"CAS":"10028-15-6","Tc":261.0,"Tc_units":"K","acentric":0.211896,"aliases":["O3"],"molemass":0.0479982,"molemass_units":"kg/mol","name":"OZONE","pc":5570000.0,"pc_units":"Pa"},{"CAS":"7784-42-1","Tc":373.0,"Tc_units":"K","acentric":0.0105042,"aliases":["ASH3"],"molemass":0.07794540000000001,"molemass_units":"kg/mol","name":"ARSINE","pc":6550000.0,"pc_units":"Pa"},{"CAS":"302-01-2","Tc":653.2,"Tc_units":"K","acentric":0.314282,"aliases":["H4N2"],"molemass":0.0320452,"molemass_units":"kg/mol","name":"HYDRAZINE","pc":14700000.0,"pc_units":"Pa"},{"CAS":"13319-75-0","Tc":260.9,"Tc_units":"K","acentric":0.433695,"aliases":["BF3"],"molemass":0.06780620000000001,"molemass_units":"kg/mol","name":"BORON-TRIFLUORIDE","pc":4990000.0,"pc_units":"Pa"},{"CAS":"10294-34-5","Tc":452.0,"Tc_units":"K","acentric":0.150516,"aliases":["BCL3"],"molemass":0.117169,"molemass_units":"kg/mol","name":"BORON-TRICHLORIDE","pc":3870000.0,"pc_units":"Pa"},{"CAS":"7803-51-2","Tc":324.8,"Tc_units":"K","acentric":0.0451587,"aliases":["PH3"],"molemass":0.033997599999999996,"molemass_units":"kg/mol","name":"PHOSPHINE","pc":6540000.0,"pc_units":"Pa"},{"CAS":"19287-45-7","Tc":289.8,"Tc_units":"K","acentric":0.1311,"aliases":["B2H6"],"molemass":0.0276696,"molemass_units":"kg/mol","name":"DIBORANE","pc":4050000.0,"pc_units":"Pa"},{"CAS":"2696-92-6","Tc":440.7,"Tc_units":"K","acentric":0.300473,"aliases":["NOCL"],"molemass":0.0654588,"molemass_units":"kg/mol","name":"NITROSYL-CHLORIDE","pc":9120000.0,"pc_units":"Pa"},{"CAS":"13637-83-7","Tc":368.4,"Tc_units":"K","acentric":0.17257,"aliases":["CLO3F"],"molemass":0.102449,"molemass_units":"kg/mol","name":"PERCHLORYL-FLUORIDE","pc":5370000.0,"pc_units":"Pa"},{"CAS":"10036-47-2","Tc":309.4,"Tc_units":"K","acentric":0.223345,"aliases":["N2F4"],"molemass":0.104007,"molemass_units":"kg/mol","name":"TETRAFLUOROHYDRAZINE","pc":3710000.0,"pc_units":"Pa"},{"CAS":"7782-65-2","Tc":308.0,"Tc_units":"K","acentric":0.150569,"aliases":["GEH4"],"molemass":0.07664180000000001,"molemass_units":"kg/mol","name":"GERMANIUM-TETRAHYDRIDE","pc":5550000.0,"pc_units":"Pa"},{"CAS":"10049-04-4","Tc":465.0,"Tc_units":"K","acentric":0.356377,"aliases":["CLO2"],"molemass":0.0674515,"molemass_units":"kg/mol","name":"CHLORINE-DIOXIDE","pc":8610000.0,"pc_units":"Pa"},{"CAS":"7783-07-5","Tc":411.2,"Tc_units":"K","acentric":0.0542229,"aliases":["H2SE"],"molemass":0.08097589999999999,"molemass_units":"kg/mol","name":"HYDROGEN-SELENIDE","pc":8920000.0,"pc_units":"Pa"},{"CAS":"7789-26-6","Tc":330.6,"Tc_units":"K","acentric":0.062487,"aliases":["FNO"],"molemass":0.0490045,"molemass_units":"kg/mol","name":"NITROSYL-FLUORIDE","pc":2710000.0,"pc_units":"Pa"},{"CAS":"7803-62-5","Tc":269.7,"Tc_units":"K","acentric":0.0937548,"aliases":["SIH4"],"molemass":0.0321173,"molemass_units":"kg/mol","name":"SILANE","pc":4840000.0,"pc_units":"Pa"},{"CAS":"7782-50-5","Tc":417.2,"Tc_units":"K","acentric":0.0688183,"aliases":["CL2"],"molemass":0.0709054,"molemass_units":"kg/mol","name":"CHLORINE","pc":7710000.0,"pc_units":"Pa"},{"CAS":"7783-54-2","Tc":234.0,"Tc_units":"K","acentric":0.119984,"aliases":["NF3"],"molemass":0.0710019,"molemass_units":"kg/mol","name":"NITROGEN-TRIFLUORIDE","pc":4460700.0,"pc_units":"Pa"}]